 LAMMPS Description
 
          11 atoms
 
           2 atom types
 
   0.0000000000000000        17.745000000000001      xlo xhi
   0.0000000000000000        12.539999999999999      ylo yhi
   0.0000000000000000        12.250000000000000      zlo zhi

 Masses
 
              1   12.01    
              2   1.0079     
 
 Atoms
 
    1    1    1   0.0   7.61600   6.03400   6.13200
    2    1    1   0.0   8.87400   6.87400   6.26400
    3    1    2   0.0   6.73400   6.62800   6.39000
    4    1    2   0.0   7.74700   4.92700   6.87000
    5    1    2   0.0   7.49300   5.67300   5.10600
    6    1    1   0.0  10.12700   6.05200   6.01200
    7    1    2   0.0   8.92100   7.30800   7.26800
    8    1    2   0.0   8.83300   7.70600   5.55100
    9    1    2   0.0  10.22500   5.25300   6.75500
   10    1    2   0.0  11.20500   6.82100   6.12400
   11    1    2   0.0  10.10600   5.59500   5.01800
