 LAMMPS Description

         300 atoms

           2 atom types

   0.0000000000000000        14.404999999999999      xlo xhi
   0.0000000000000000        14.404999999999999      ylo yhi
   0.0000000000000000        14.404999999999999      zlo zhi
   8.8205185708588112E-016   8.8205185708588112E-016   8.8205185708588112E-016 xy xz yz

 Masses

              1   1.0078250169754028
              2   15.994915008544922

 Atoms

    1    1    1   0.0   2.44100   0.20600   1.00300
    2    1    2   0.0   2.28300   0.06800   0.04900
    3    1    1   0.0   1.79100  13.63200   0.01400
    4    1    1   0.0   0.50700  14.25000   6.56400
    5    1    2   0.0   0.89500   0.74100   6.43800
    6    1    1   0.0   0.12600   1.30400   6.65900
    7    1    1   0.0   6.07100   4.56800  13.85400
    8    1    2   0.0   6.37600   5.36600  14.36300
    9    1    1   0.0   6.85400   4.94600   0.72800
   10    1    1   0.0   9.13800   4.82900   5.13900
   11    1    2   0.0   9.29500   4.91700   4.17100
   12    1    1   0.0  10.26100   4.85100   4.00400
   13    1    1   0.0   8.42200   9.67800  11.47900
   14    1    2   0.0   7.63900  10.22400  11.24900
   15    1    1   0.0   6.98500  10.03000  11.95900
   16    1    1   0.0   6.55500   7.29100   3.44600
   17    1    2   0.0   7.45600   7.68200   3.53200
   18    1    1   0.0   7.49900   7.84300   4.50800
   19    1    1   0.0   4.03200   0.78800   4.74000
   20    1    2   0.0   4.75200   0.59500   5.39200
   21    1    1   0.0   4.93100  14.05400   5.27900
   22    1    1   0.0   1.04800  12.26800   2.34300
   23    1    2   0.0   1.88300  12.29500   1.83400
   24    1    1   0.0   1.86500  11.48000   1.30400
   25    1    1   0.0   2.74800   5.73400   0.76500
   26    1    2   0.0   3.46700   5.76700   0.11100
   27    1    1   0.0   3.92400   4.91000   0.17200
   28    1    1   0.0  14.40100   8.01500   4.04100
   29    1    2   0.0   0.76200   8.54100   3.68700
   30    1    1   0.0   1.00500   8.03800   2.88300
   31    1    1   0.0   7.57100   5.54500   7.83500
   32    1    2   0.0   7.65800   5.22700   6.90000
   33    1    1   0.0   7.10000   4.43000   6.98000
   34    1    1   0.0  12.14000   7.26200   7.79000
   35    1    2   0.0  13.06300   7.56900   7.96500
   36    1    1   0.0  13.60300   6.79600   7.66600
   37    1    1   0.0   5.93400   8.72200  10.97800
   38    1    2   0.0   5.13500   8.66700  11.53300
   39    1    1   0.0   4.54900   8.03000  11.07400
   40    1    1   0.0   7.15000   0.49500   4.78800
   41    1    2   0.0   8.03300   0.64100   5.18500
   42    1    1   0.0   8.68400   0.54600   4.46200
   43    1    1   0.0   1.35800  11.09600   7.49700
   44    1    2   0.0   1.66800  11.00200   6.56900
   45    1    1   0.0   1.84200  10.05600   6.42900
   46    1    1   0.0   2.32300   0.33300   7.72900
   47    1    2   0.0   3.22700  14.38400   7.87200
   48    1    1   0.0   3.04600  13.58400   8.41900
   49    1    1   0.0   9.01000   4.35900  10.22700
   50    1    2   0.0   9.93700   4.62600  10.06700
   51    1    1   0.0  10.04200   4.45800   9.11500
   52    1    1   0.0   2.06900   2.69100  13.04500
   53    1    2   0.0   2.59600   2.79900  13.86800
   54    1    1   0.0   2.55700   1.89200  14.23700
   55    1    1   0.0   5.72700   4.79800   4.39600
   56    1    2   0.0   6.51700   5.06700   3.85800
   57    1    1   0.0   7.25200   4.96500   4.49800
   58    1    1   0.0   2.69800   5.51700   7.46500
   59    1    2   0.0   3.02200   6.39100   7.77500
   60    1    1   0.0   3.46900   6.21700   8.63900
   61    1    1   0.0   0.76700   4.55300   4.59100
   62    1    2   0.0   0.38900   3.83000   4.05200
   63    1    1   0.0  14.34500   4.32900   3.33800
   64    1    1   0.0  12.18900   4.33400  10.12700
   65    1    2   0.0  12.65400   4.89700  10.77400
   66    1    1   0.0  12.54400   4.41900  11.61900
   67    1    1   0.0   8.10500  13.66900   2.56500
   68    1    2   0.0   8.43200  13.12200   3.29900
   69    1    1   0.0   7.81600  12.42300   3.59800
   70    1    1   0.0  13.16500   9.90100  12.67200
   71    1    2   0.0  14.15900   9.90100  12.39300
   72    1    1   0.0  14.27000   9.05600  11.92800
   73    1    1   0.0   7.84000  13.93900   9.33300
   74    1    2   0.0   7.92300  14.23400  10.25800
   75    1    1   0.0   7.40000  13.58600  10.76200
   76    1    1   0.0   6.28400   0.41000   8.01800
   77    1    2   0.0   5.69000   1.17500   8.11800
   78    1    1   0.0   4.84100   0.82000   7.71700
   79    1    1   0.0   1.94900  12.85000  10.69600
   80    1    2   0.0   2.01500  12.54100   9.76500
   81    1    1   0.0   1.28400  11.89400   9.72200
   82    1    1   0.0  14.31000   7.21700  10.10700
   83    1    2   0.0   0.47300   7.78600  10.64900
   84    1    1   0.0   1.34500   7.36400  10.58100
   85    1    1   0.0   1.91600   0.79200   3.31800
   86    1    2   0.0   2.78500   0.62900   2.89000
   87    1    1   0.0   3.06600  14.17500   3.29700
   88    1    1   0.0  10.53100   2.50700   2.36700
   89    1    2   0.0  11.36600   2.91800   2.69700
   90    1    1   0.0  11.56000   2.47700   3.54000
   91    1    1   0.0   3.27600   5.45800  11.53400
   92    1    2   0.0   4.15400   5.85000  11.33800
   93    1    1   0.0   4.43800   6.12500  12.23200
   94    1    1   0.0   7.00100   8.93100   9.33700
   95    1    2   0.0   7.39500   8.40400   8.62600
   96    1    1   0.0   7.02100   7.49300   8.72600
   97    1    1   0.0   5.75200   5.35800   9.37400
   98    1    2   0.0   6.56800   5.90700   9.32100
   99    1    1   0.0   6.88200   5.97000  10.27200
  100    1    1   0.0  10.40400  12.64500   6.10700
  101    1    2   0.0  10.85000  13.13700   5.38900
  102    1    1   0.0  10.99800  12.46100   4.68700
  103    1    1   0.0  10.61900  10.58000  13.77000
  104    1    2   0.0  11.59400  10.52100  13.96100
  105    1    1   0.0  11.70300   9.55700  14.13200
  106    1    1   0.0   4.10700   1.50300   1.76500
  107    1    2   0.0   4.94200   1.40000   1.27600
  108    1    1   0.0   4.85000   0.48400   0.94400
  109    1    1   0.0   7.95300  12.37300   7.74500
  110    1    2   0.0   8.51700  12.17400   8.51900
  111    1    1   0.0   8.04200  11.47200   8.99800
  112    1    1   0.0   8.65200   3.68700   0.28100
  113    1    2   0.0   9.36200   3.39000  14.09900
  114    1    1   0.0   8.93600   2.79700  13.48000
  115    1    1   0.0   0.50300   8.64900  13.75200
  116    1    2   0.0   1.28100   8.48500  14.34500
  117    1    1   0.0   1.02900   7.68600   0.48100
  118    1    1   0.0   4.43000  12.76400   9.75100
  119    1    2   0.0   4.82500  13.52700  10.22600
  120    1    1   0.0   5.21400  14.07100   9.51700
  121    1    1   0.0   2.58000   9.53500   9.06300
  122    1    2   0.0   3.17400   8.77600   8.89400
  123    1    1   0.0   3.46100   8.85100   7.96600
  124    1    1   0.0   4.11900  12.68100  13.25000
  125    1    2   0.0   4.22500  12.06400  12.48900
  126    1    1   0.0   3.84800  11.22300  12.85000
  127    1    1   0.0   3.71200  13.00100   0.99200
  128    1    2   0.0   4.62800  12.95800   0.64700
  129    1    1   0.0   4.98900  12.13800   1.10600
  130    1    1   0.0   7.56200   9.50400   3.04100
  131    1    2   0.0   8.04500  10.34400   3.25300
  132    1    1   0.0   9.00100  10.12000   3.12500
  133    1    1   0.0   6.65100  11.71200   2.12800
  134    1    2   0.0   5.77600  11.41900   2.45900
  135    1    1   0.0   5.84800  10.44500   2.46400
  136    1    1   0.0  12.43900   6.66900   1.83900
  137    1    2   0.0  11.90900   6.01200   2.32300
  138    1    1   0.0  12.22900   5.14600   2.00300
  139    1    1   0.0   0.01500   5.86600   1.71600
  140    1    2   0.0   0.86300   6.29800   1.95400
  141    1    1   0.0   1.47200   5.58300   2.19800
  142    1    1   0.0  11.93100  12.50200   8.47200
  143    1    2   0.0  11.09900  12.76900   8.03300
  144    1    1   0.0  10.40400  12.33000   8.55900
  145    1    1   0.0   4.18500   7.37800   6.80400
  146    1    2   0.0   4.58800   8.16400   6.36200
  147    1    1   0.0   4.06900   8.26300   5.54600
  148    1    1   0.0  13.90600   2.01700   8.61300
  149    1    2   0.0   0.42000   2.40200   8.55700
  150    1    1   0.0   0.72200   2.32600   9.49200
  151    1    1   0.0   4.77800   3.30700  11.98200
  152    1    2   0.0   5.22100   2.98700  12.79900
  153    1    1   0.0   4.50400   3.06700  13.48000
  154    1    1   0.0  13.34400  13.91800   3.35700
  155    1    2   0.0  14.12600  14.28700   3.81400
  156    1    1   0.0   0.32500  13.51800   3.91800
  157    1    1   0.0   9.03700   6.80200  13.69500
  158    1    2   0.0   9.60000   7.46700  13.23300
  159    1    1   0.0   9.42900   7.30100  12.27400
  160    1    1   0.0   0.50800  11.30700   5.18600
  161    1    2   0.0   0.38100  11.38200   4.20800
  162    1    1   0.0   0.87200  10.59300   3.84800
  163    1    1   0.0  12.97800   3.42400   1.81800
  164    1    2   0.0  13.70400   3.93900   1.38500
  165    1    1   0.0  13.84500   3.49900   0.52700
  166    1    1   0.0  12.19600   6.94000   4.04700
  167    1    2   0.0  13.00400   7.21100   4.53000
  168    1    1   0.0  12.67700   7.39900   5.42900
  169    1    1   0.0  10.42200   0.27300  11.89100
  170    1    2   0.0  10.91400   0.38200  11.04600
  171    1    1   0.0  10.21900   0.31100  10.36600
  172    1    1   0.0   7.67500   2.21900   8.04800
  173    1    2   0.0   8.31300   2.58900   7.40300
  174    1    1   0.0   8.25800   1.94000   6.64500
  175    1    1   0.0  10.07400  10.19500   6.81700
  176    1    2   0.0   9.89800  10.16400   5.86100
  177    1    1   0.0  10.36600   9.35900   5.57300
  178    1    1   0.0  12.13400   1.07200   9.93600
  179    1    2   0.0  12.23300   1.27900   8.95600
  180    1    1   0.0  12.27200   0.42600   8.41600
  181    1    1   0.0   4.05900   7.71300   1.79200
  182    1    2   0.0   4.71500   7.10600   2.16000
  183    1    1   0.0   4.64800   6.38100   1.50800
  184    1    1   0.0  13.87700  10.61100   8.87100
  185    1    2   0.0   0.38900  10.36300   9.16200
  186    1    1   0.0   0.24000   9.46200   9.49100
  187    1    1   0.0   2.96700   9.01700  14.01200
  188    1    2   0.0   3.78500   9.58100  13.91400
  189    1    1   0.0   4.27700   9.04900  13.24700
  190    1    1   0.0  10.08500  14.00000   2.85900
  191    1    2   0.0  10.87300  14.37900   2.55900
  192    1    1   0.0  11.33800   0.39000   3.32600
  193    1    1   0.0  11.30900   7.53200  14.04400
  194    1    2   0.0  12.22900   7.70000  14.38900
  195    1    1   0.0  12.79700   7.04500  13.91200
  196    1    1   0.0   6.46100  13.93100   0.93500
  197    1    2   0.0   7.39600  13.67800   0.82500
  198    1    1   0.0   7.40600  13.36300  14.29800
  199    1    1   0.0  12.03000   1.44800  12.36400
  200    1    2   0.0  12.79400   1.37100  12.95000
  201    1    1   0.0  12.48500   0.71800  13.59900
  202    1    1   0.0   2.12200   3.25800   7.72200
  203    1    2   0.0   2.41000   3.77400   6.94200
  204    1    1   0.0   1.76400   3.47600   6.27600
  205    1    1   0.0   4.22800   3.98700   6.00400
  206    1    2   0.0   5.09600   3.72200   5.62800
  207    1    1   0.0   4.96000   2.80100   5.32800
  208    1    1   0.0   6.04700   9.52000   6.08700
  209    1    2   0.0   6.21900  10.28600   5.51600
  210    1    1   0.0   7.18900  10.39800   5.52700
  211    1    1   0.0   8.77800  12.11800   0.33800
  212    1    2   0.0   8.80000  11.14300   0.34500
  213    1    1   0.0   8.72500  10.88600   1.28400
  214    1    1   0.0  10.10700   3.02100   7.58500
  215    1    2   0.0  10.98000   3.50500   7.61600
  216    1    1   0.0  11.55900   2.82600   8.08000
  217    1    1   0.0   3.81500   0.37900  11.05900
  218    1    2   0.0   3.29900   1.19700  10.81100
  219    1    1   0.0   3.13700   1.04300   9.85600
  220    1    1   0.0  13.45000   5.79100  12.68600
  221    1    2   0.0  14.08500   6.44400  13.02200
  222    1    1   0.0   0.43100   6.35200  12.39500
  223    1    1   0.0   3.42700  12.06000   4.47100
  224    1    2   0.0   3.08300  12.95500   4.64600
  225    1    1   0.0   2.46000  12.84000   5.38600
  226    1    1   0.0  13.38900  10.00500   5.93700
  227    1    2   0.0  13.06200  10.09100   6.85900
  228    1    1   0.0  13.13100   9.17900   7.24100
  229    1    1   0.0   9.11400   7.98200   9.50300
  230    1    2   0.0   9.51600   7.58100  10.31200
  231    1    1   0.0   9.61800   6.62100  10.11700
  232    1    1   0.0   4.86000   3.20900   9.65100
  233    1    2   0.0   4.91300   3.71100   8.81700
  234    1    1   0.0   5.20200   3.03100   8.17800
  235    1    1   0.0  11.40400   9.36900   2.31000
  236    1    2   0.0  10.88500   9.86400   2.97000
  237    1    1   0.0  11.37800   9.78200   3.81300
  238    1    1   0.0   7.23000   3.78400   2.58200
  239    1    2   0.0   7.22100   3.20900   1.77800
  240    1    1   0.0   6.52200   2.53200   1.91800
  241    1    1   0.0   9.77400   8.20900   3.61000
  242    1    2   0.0  10.15200   7.57100   4.25100
  243    1    1   0.0   9.45400   6.89400   4.34800
  244    1    1   0.0  12.73400  13.13300   6.28600
  245    1    2   0.0  13.58500  13.10700   6.77900
  246    1    1   0.0  13.71100  12.13200   6.92500
  247    1    1   0.0  10.94300   4.25600  13.77000
  248    1    2   0.0  11.64400   4.91500  13.57600
  249    1    1   0.0  11.18700   5.75300  13.76000
  250    1    1   0.0  13.17500   4.66400   6.75600
  251    1    2   0.0  13.93700   4.92600   7.30800
  252    1    1   0.0   0.00800   4.08900   7.49900
  253    1    1   0.0   9.23200   0.02700  14.11100
  254    1    2   0.0  10.09800  14.15000  13.77100
  255    1    1   0.0  10.64300  14.14700   0.17500
  256    1    1   0.0  11.54100   0.53900   5.36700
  257    1    2   0.0  12.05300   1.30000   4.99700
  258    1    1   0.0  12.97700   0.98000   4.91300
  259    1    1   0.0  10.54600  11.50500  11.84100
  260    1    2   0.0  11.22400  11.83900  11.21900
  261    1    1   0.0  11.17800  12.81700  11.31600
  262    1    1   0.0   9.91800   6.03300   6.35500
  263    1    2   0.0  10.79300   6.15800   6.76000
  264    1    1   0.0  10.87500   5.36000   7.33500
  265    1    1   0.0   6.86300   2.48500  10.77100
  266    1    2   0.0   7.80800   2.52200  11.06600
  267    1    1   0.0   8.10000   1.59000  10.91800
  268    1    1   0.0   5.25000  12.79800   6.97500
  269    1    2   0.0   6.22400  12.78300   6.96300
  270    1    1   0.0   6.45400  12.10200   6.30800
  271    1    1   0.0   1.87300   3.69600   2.82600
  272    1    2   0.0   2.60200   3.96600   2.23300
  273    1    1   0.0   3.06200   3.14900   1.99600
  274    1    1   0.0  12.48600  12.31900   0.01700
  275    1    2   0.0  12.77300  13.11700   0.52100
  276    1    1   0.0  11.96200  13.45700   0.95200
  277    1    1   0.0   6.19400  12.38600  12.57000
  278    1    2   0.0   7.09800  12.71300  12.49900
  279    1    1   0.0   7.62200  12.00600  12.02800
  280    1    1   0.0   0.51200   1.65100  12.21400
  281    1    2   0.0   0.95800   2.07500  11.45200
  282    1    1   0.0   1.85400   1.62600  11.33700
  283    1    1   0.0   0.03200  13.04100  12.91800
  284    1    2   0.0   0.43200  12.61800  12.10900
  285    1    1   0.0   0.18700  11.64900  12.11500
  286    1    1   0.0   9.77600   5.76100   1.70900
  287    1    2   0.0   8.80000   5.83300   1.60300
  288    1    1   0.0   8.52300   6.45400   2.32500
  289    1    1   0.0   7.31400   5.72700  12.84400
  290    1    2   0.0   7.63500   5.59900  11.90600
  291    1    1   0.0   7.84700   4.59300  11.87700
  292    1    1   0.0   5.53800   9.45400   0.42400
  293    1    2   0.0   6.40700   9.29200   0.86200
  294    1    1   0.0   6.27900   8.38500   1.19900
  295    1    1   0.0   4.40000  10.34500   9.33100
  296    1    2   0.0   4.49200  11.09000   8.70400
  297    1    1   0.0   4.12200  10.74300   7.87400
  298    1    1   0.0   0.08700   4.80700  10.70500
  299    1    2   0.0   0.94000   4.68900  11.19200
  300    1    1   0.0   0.90200   3.73400  11.48000

