 LAMMPS Description

          48 atoms

           2 atom types

   0.0000000000000000        5.4710000000000001      xlo xhi
   0.0000000000000000        10.942000000000000      ylo yhi
   0.0000000000000000        10.942000000000000      zlo zhi
   0.0000000000000000        0.0000000000000000        0.0000000000000000      xy xz yz

 Masses

              1   238.05078125000000
              2   15.994915008544922

 Atoms

    1    1    1   0.0   0.00000   0.00000   0.00000
    2    1    1   0.0   2.73550   2.73550   0.00000
    3    1    1   0.0   2.73550   0.00000   2.73550
    4    1    1   0.0   0.00000   2.73550   2.73550
    5    1    2   0.0   1.36775   1.36775   1.36775
    6    1    2   0.0   4.10325   1.36775   1.36775
    7    1    2   0.0   1.36775   4.10325   1.36775
    8    1    2   0.0   1.36775   1.36775   4.10325
    9    1    2   0.0   4.10325   4.10325   1.36775
   10    1    2   0.0   4.10325   1.36775   4.10325
   11    1    2   0.0   1.36775   4.10325   4.10325
   12    1    2   0.0   4.10325   4.10325   4.10325
   13    1    1   0.0   0.00000   0.00000   5.47100
   14    1    1   0.0   2.73550   2.73550   5.47100
   15    1    1   0.0   2.73550   0.00000   8.20650
   16    1    1   0.0   0.00000   2.73550   8.20650
   17    1    2   0.0   1.36775   1.36775   6.83875
   18    1    2   0.0   4.10325   1.36775   6.83875
   19    1    2   0.0   1.36775   4.10325   6.83875
   20    1    2   0.0   1.36775   1.36775   9.57425
   21    1    2   0.0   4.10325   4.10325   6.83875
   22    1    2   0.0   4.10325   1.36775   9.57425
   23    1    2   0.0   1.36775   4.10325   9.57425
   24    1    2   0.0   4.10325   4.10325   9.57425
   25    1    1   0.0   0.00000   5.47100   0.00000
   26    1    1   0.0   2.73550   8.20650   0.00000
   27    1    1   0.0   2.73550   5.47100   2.73550
   28    1    1   0.0   0.00000   8.20650   2.73550
   29    1    2   0.0   1.36775   6.83875   1.36775
   30    1    2   0.0   4.10325   6.83875   1.36775
   31    1    2   0.0   1.36775   9.57425   1.36775
   32    1    2   0.0   1.36775   6.83875   4.10325
   33    1    2   0.0   4.10325   9.57425   1.36775
   34    1    2   0.0   4.10325   6.83875   4.10325
   35    1    2   0.0   1.36775   9.57425   4.10325
   36    1    2   0.0   4.10325   9.57425   4.10325
   37    1    1   0.0   0.00000   5.47100   5.47100
   38    1    1   0.0   2.73550   8.20650   5.47100
   39    1    1   0.0   2.73550   5.47100   8.20650
   40    1    1   0.0   0.00000   8.20650   8.20650
   41    1    2   0.0   1.36775   6.83875   6.83875
   42    1    2   0.0   4.10325   6.83875   6.83875
   43    1    2   0.0   1.36775   9.57425   6.83875
   44    1    2   0.0   1.36775   6.83875   9.57425
   45    1    2   0.0   4.10325   9.57425   6.83875
   46    1    2   0.0   4.10325   6.83875   9.57425
   47    1    2   0.0   1.36775   9.57425   9.57425
   48    1    2   0.0   4.10325   9.57425   9.57425

